Wed Feb 15 17:29:46 GMT 2023
nimbus-1-spot-fsv2-4-pg0-2

                                 *****************
                                 * O   R   C   A *
                                 *****************

                                            #,                                       
                                            ###                                      
                                            ####                                     
                                            #####                                    
                                            ######                                   
                                           ########,                                 
                                     ,,################,,,,,                         
                               ,,#################################,,                 
                          ,,##########################################,,             
                       ,#########################################, ''#####,          
                    ,#############################################,,   '####,        
                  ,##################################################,,,,####,       
                ,###########''''           ''''###############################       
              ,#####''   ,,,,##########,,,,          '''####'''          '####       
            ,##' ,,,,###########################,,,                        '##       
           ' ,,###''''                  '''############,,,                           
         ,,##''                                '''############,,,,        ,,,,,,###''
      ,#''                                            '''#######################'''  
     '                                                          ''''####''''         
             ,#######,   #######,   ,#######,      ##                                
            ,#'     '#,  ##    ##  ,#'     '#,    #''#        ######   ,####,        
            ##       ##  ##   ,#'  ##            #'  '#       #        #'  '#        
            ##       ##  #######   ##           ,######,      #####,   #    #        
            '#,     ,#'  ##    ##  '#,     ,#' ,#      #,         ##   #,  ,#        
             '#######'   ##     ##  '#######'  #'      '#     #####' # '####'        



                  #######################################################
                  #                        -***-                        #
                  #          Department of theory and spectroscopy      #
                  #    Directorship and core code : Frank Neese         #
                  #        Max Planck Institute fuer Kohlenforschung    #
                  #                Kaiser Wilhelm Platz 1               #
                  #                 D-45470 Muelheim/Ruhr               #
                  #                      Germany                        #
                  #                                                     #
                  #                  All rights reserved                #
                  #                        -***-                        #
                  #######################################################


                         Program Version 5.0.1 -  RELEASE  -


 With contributions from (in alphabetic order):
   Daniel Aravena         : Magnetic Suceptibility
   Michael Atanasov       : Ab Initio Ligand Field Theory (pilot matlab implementation)
   Alexander A. Auer      : GIAO ZORA, VPT2 properties, NMR spectrum
   Ute Becker             : Parallelization
   Giovanni Bistoni       : ED, misc. LED, open-shell LED, HFLD
   Martin Brehm           : Molecular dynamics
   Dmytro Bykov           : SCF Hessian
   Vijay G. Chilkuri      : MRCI spin determinant printing, contributions to CSF-ICE
   Dipayan Datta          : RHF DLPNO-CCSD density
   Achintya Kumar Dutta   : EOM-CC, STEOM-CC
   Dmitry Ganyushin       : Spin-Orbit,Spin-Spin,Magnetic field MRCI
   Miquel Garcia          : C-PCM and meta-GGA Hessian, CC/C-PCM, Gaussian charge scheme
   Yang Guo               : DLPNO-NEVPT2, F12-NEVPT2, CIM, IAO-localization
   Andreas Hansen         : Spin unrestricted coupled pair/coupled cluster methods
   Benjamin Helmich-Paris : MC-RPA, TRAH-SCF, COSX integrals
   Lee Huntington         : MR-EOM, pCC
   Robert Izsak           : Overlap fitted RIJCOSX, COSX-SCS-MP3, EOM
   Marcus Kettner         : VPT2
   Christian Kollmar      : KDIIS, OOCD, Brueckner-CCSD(T), CCSD density, CASPT2, CASPT2-K
   Simone Kossmann        : Meta GGA functionals, TD-DFT gradient, OOMP2, MP2 Hessian
   Martin Krupicka        : Initial AUTO-CI
   Lucas Lang             : DCDCAS
   Marvin Lechner         : AUTO-CI (C++ implementation), FIC-MRCC
   Dagmar Lenk            : GEPOL surface, SMD
   Dimitrios Liakos       : Extrapolation schemes; Compound Job, initial MDCI parallelization
   Dimitrios Manganas     : Further ROCIS development; embedding schemes
   Dimitrios Pantazis     : SARC Basis sets
   Anastasios Papadopoulos: AUTO-CI, single reference methods and gradients
   Taras Petrenko         : DFT Hessian,TD-DFT gradient, ASA, ECA, R-Raman, ABS, FL, XAS/XES, NRVS
   Peter Pinski           : DLPNO-MP2, DLPNO-MP2 Gradient
   Christoph Reimann      : Effective Core Potentials
   Marius Retegan         : Local ZFS, SOC
   Christoph Riplinger    : Optimizer, TS searches, QM/MM, DLPNO-CCSD(T), (RO)-DLPNO pert. Triples
   Tobias Risthaus        : Range-separated hybrids, TD-DFT gradient, RPA, STAB
   Michael Roemelt        : Original ROCIS implementation
   Masaaki Saitow         : Open-shell DLPNO-CCSD energy and density
   Barbara Sandhoefer     : DKH picture change effects
   Avijit Sen             : IP-ROCIS
   Kantharuban Sivalingam : CASSCF convergence, NEVPT2, FIC-MRCI
   Bernardo de Souza      : ESD, SOC TD-DFT
   Georgi Stoychev        : AutoAux, RI-MP2 NMR, DLPNO-MP2 response
   Willem Van den Heuvel  : Paramagnetic NMR
   Boris Wezisla          : Elementary symmetry handling
   Frank Wennmohs         : Technical directorship


 We gratefully acknowledge several colleagues who have allowed us to
 interface, adapt or use parts of their codes:
   Stefan Grimme, W. Hujo, H. Kruse, P. Pracht,  : VdW corrections, initial TS optimization,
                  C. Bannwarth, S. Ehlert          DFT functionals, gCP, sTDA/sTD-DF
   Ed Valeev, F. Pavosevic, A. Kumar             : LibInt (2-el integral package), F12 methods
   Garnet Chan, S. Sharma, J. Yang, R. Olivares  : DMRG
   Ulf Ekstrom                                   : XCFun DFT Library
   Mihaly Kallay                                 : mrcc  (arbitrary order and MRCC methods)
   Jiri Pittner, Ondrej Demel                    : Mk-CCSD
   Frank Weinhold                                : gennbo (NPA and NBO analysis)
   Christopher J. Cramer and Donald G. Truhlar   : smd solvation model
   Lars Goerigk                                  : TD-DFT with DH, B97 family of functionals
   V. Asgeirsson, H. Jonsson                     : NEB implementation
   FAccTs GmbH                                   : IRC, NEB, NEB-TS, DLPNO-Multilevel, CI-OPT
                                                   MM, QMMM, 2- and 3-layer-ONIOM, Crystal-QMMM,
                                                   LR-CPCM, SF, NACMEs, symmetry and pop. for TD-DFT,
                                                   nearIR, NL-DFT gradient (VV10), updates on ESD,
                                                   ML-optimized integration grids
   S Lehtola, MJT Oliveira, MAL Marques          : LibXC Library
   Liviu Ungur et al                             : ANISO software


 Your calculation uses the libint2 library for the computation of 2-el integrals
 For citations please refer to: http://libint.valeyev.net

 Your ORCA version has been built with support for libXC version: 5.1.0
 For citations please refer to: https://tddft.org/programs/libxc/

 This ORCA versions uses:
   CBLAS   interface :  Fast vector & matrix operations
   LAPACKE interface :  Fast linear algebra routines
   SCALAPACK package :  Parallel linear algebra routines
   Shared memory     :  Shared parallel matrices
   BLAS/LAPACK       :  OpenBLAS 0.3.15  USE64BITINT DYNAMIC_ARCH NO_AFFINITY SkylakeX SINGLE_THREADED
        Core in use  :  SkylakeX
   Copyright (c) 2011-2014, The OpenBLAS Project




***************************************
The coordinates will be read from file: benzene.xyz
***************************************


================================================================================

----- Orbital basis set information -----
Your calculation utilizes the basis: def2-SVP
   F. Weigend and R. Ahlrichs, Phys. Chem. Chem. Phys. 7, 3297 (2005).

----- AuxJ basis set information -----
Your calculation utilizes the auxiliary basis: def2/J
   F. Weigend, Phys. Chem. Chem. Phys. 8, 1057 (2006).

================================================================================
                                        WARNINGS
                       Please study these warnings very carefully!
================================================================================


WARNING: Geometry Optimization
  ===> : Switching off AutoStart
         For restart on a previous wavefunction, please use MOREAD

INFO   : the flag for use of the SHARK integral package has been found!

================================================================================
                                       INPUT FILE
================================================================================
NAME = benzene.inp
|  1> !PBE def2-svp OPT FREQ
|  2> %PAL NPROCS 4 END
|  3> %maxcore 3000
|  4> *xyzfile 0 1 benzene.xyz
|  5> 
|  6>                          ****END OF INPUT****
================================================================================

                       *****************************
                       * Geometry Optimization Run *
                       *****************************

Geometry optimization settings:
Update method            Update   .... BFGS
Choice of coordinates    CoordSys .... Z-matrix Internals
Initial Hessian          InHess   .... Almoef's Model

Convergence Tolerances:
Energy Change            TolE     ....  5.0000e-06 Eh
Max. Gradient            TolMAXG  ....  3.0000e-04 Eh/bohr
RMS Gradient             TolRMSG  ....  1.0000e-04 Eh/bohr
Max. Displacement        TolMAXD  ....  4.0000e-03 bohr
RMS Displacement         TolRMSD  ....  2.0000e-03 bohr
Strict Convergence                ....  False
------------------------------------------------------------------------------
                        ORCA OPTIMIZATION COORDINATE SETUP
------------------------------------------------------------------------------

The optimization will be done in new redundant internal coordinates
Making redundant internal coordinates   ...  (new redundants) done
Evaluating the initial hessian          ...  (Almloef) done
Evaluating the coordinates              ...  done
Calculating the B-matrix                .... done
Calculating the G-matrix                .... done
Diagonalizing the G-matrix              .... done
The first mode is                       ....   24
The number of degrees of freedom        ....   30

    -----------------------------------------------------------------
                    Redundant Internal Coordinates


    -----------------------------------------------------------------
         Definition                    Initial Value    Approx d2E/dq
    -----------------------------------------------------------------
      1. B(C   1,H   0)                  1.0948         0.353838   
      2. B(C   2,C   1)                  1.3912         0.621995   
      3. B(H   3,C   2)                  1.0947         0.353991   
      4. B(C   4,C   2)                  1.3911         0.622386   
      5. B(H   5,C   4)                  1.0948         0.353860   
      6. B(C   6,C   4)                  1.3912         0.622056   
      7. B(H   7,C   6)                  1.0946         0.354009   
      8. B(C   8,C   6)                  1.3911         0.622212   
      9. B(H   9,C   8)                  1.0947         0.353973   
     10. B(C  10,C   8)                  1.3911         0.622273   
     11. B(C  10,C   1)                  1.3911         0.622259   
     12. B(H  11,C  10)                  1.0947         0.353984   
     13. A(C   2,C   1,C  10)          119.9984         0.434601   
     14. A(H   0,C   1,C   2)          119.9896         0.352054   
     15. A(H   0,C   1,C  10)          120.0120         0.352080   
     16. A(C   1,C   2,C   4)          119.9942         0.434617   
     17. A(H   3,C   2,C   4)          119.9925         0.352118   
     18. A(C   1,C   2,H   3)          120.0133         0.352080   
     19. A(H   5,C   4,C   6)          119.9948         0.352064   
     20. A(C   2,C   4,C   6)          120.0098         0.434625   
     21. A(C   2,C   4,H   5)          119.9954         0.352095   
     22. A(H   7,C   6,C   8)          120.0037         0.352104   
     23. A(C   4,C   6,C   8)          119.9917         0.434603   
     24. A(C   4,C   6,H   7)          120.0047         0.352089   
     25. A(H   9,C   8,C  10)          120.0071         0.352104   
     26. A(C   6,C   8,C  10)          120.0021         0.434631   
     27. A(C   6,C   8,H   9)          119.9908         0.352098   
     28. A(C   8,C  10,H  11)          120.0045         0.352106   
     29. A(C   1,C  10,H  11)          119.9916         0.352104   
     30. A(C   1,C  10,C   8)          120.0039         0.434636   
     31. D(C   4,C   2,C   1,H   0)   -179.9951         0.026781   
     32. D(C   4,C   2,C   1,C  10)     -0.0006         0.026781   
     33. D(H   3,C   2,C   1,C  10)    179.9928         0.026781   
     34. D(H   3,C   2,C   1,H   0)     -0.0017         0.026781   
     35. D(C   6,C   4,C   2,C   1)     -0.0039         0.026817   
     36. D(H   5,C   4,C   2,C   1)    179.9932         0.026817   
     37. D(H   5,C   4,C   2,H   3)     -0.0002         0.026817   
     38. D(C   6,C   4,C   2,H   3)   -179.9973         0.026817   
     39. D(C   8,C   6,C   4,H   5)   -179.9885         0.026787   
     40. D(C   8,C   6,C   4,C   2)      0.0086         0.026787   
     41. D(H   7,C   6,C   4,H   5)      0.0021         0.026787   
     42. D(H   7,C   6,C   4,C   2)    179.9993         0.026787   
     43. D(C  10,C   8,C   6,C   4)     -0.0088         0.026801   
     44. D(H   9,C   8,C   6,H   7)     -0.0014         0.026801   
     45. D(H   9,C   8,C   6,C   4)    179.9893         0.026801   
     46. D(C  10,C   8,C   6,H   7)   -179.9995         0.026801   
     47. D(H  11,C  10,C   8,H   9)      0.0075         0.026807   
     48. D(C   1,C  10,C   8,H   9)   -179.9938         0.026807   
     49. D(C   1,C  10,C   8,C   6)      0.0043         0.026807   
     50. D(H  11,C  10,C   1,C   2)    179.9992         0.026805   
     51. D(H  11,C  10,C   1,H   0)     -0.0063         0.026805   
     52. D(H  11,C  10,C   8,C   6)   -179.9945         0.026807   
     53. D(C   8,C  10,C   1,C   2)      0.0004         0.026805   
     54. D(C   8,C  10,C   1,H   0)    179.9949         0.026805   
    -----------------------------------------------------------------

Number of atoms                         .... 12
Number of degrees of freedom            .... 54

         *************************************************************
         *                GEOMETRY OPTIMIZATION CYCLE   1            *
         *************************************************************
---------------------------------
CARTESIAN COORDINATES (ANGSTROEM)
---------------------------------
  H      1.219400   -0.165200    2.160000
  C      0.682500   -0.092400    1.208700
  C     -0.707500   -0.035200    1.197300
  H     -1.264400   -0.063000    2.139300
  C     -1.389800    0.057200   -0.011400
  H     -2.483600    0.102100   -0.020400
  C     -0.682400    0.092500   -1.208800
  H     -1.219400    0.165200   -2.159900
  C      0.707500    0.035200   -1.197300
  H      1.264100    0.062800   -2.139500
  C      1.389900   -0.057200    0.011400
  H      2.483600   -0.102200    0.020500

----------------------------
CARTESIAN COORDINATES (A.U.)
----------------------------
  NO LB      ZA    FRAG     MASS         X           Y           Z
   0 H     1.0000    0     1.008    2.304332   -0.312183    4.081808
   1 C     6.0000    0    12.011    1.289738   -0.174611    2.284112
   2 C     6.0000    0    12.011   -1.336981   -0.066518    2.262569
   3 H     1.0000    0     1.008   -2.389370   -0.119053    4.042691
   4 C     6.0000    0    12.011   -2.626341    0.108092   -0.021543
   5 H     1.0000    0     1.008   -4.693324    0.192941   -0.038550
   6 C     6.0000    0    12.011   -1.289549    0.174800   -2.284301
   7 H     1.0000    0     1.008   -2.304332    0.312183   -4.081619
   8 C     6.0000    0    12.011    1.336981    0.066518   -2.262569
   9 H     1.0000    0     1.008    2.388803    0.118675   -4.043069
  10 C     6.0000    0    12.011    2.626530   -0.108092    0.021543
  11 H     1.0000    0     1.008    4.693324   -0.193130    0.038739

--------------------------------
INTERNAL COORDINATES (ANGSTROEM)
--------------------------------
 H      0   0   0     0.000000000000     0.00000000     0.00000000
 C      1   0   0     1.094775383355     0.00000000     0.00000000
 C      2   1   0     1.391223130918   119.98964325     0.00000000
 H      3   2   1     1.094657229456   120.01328615     0.00000000
 C      3   2   1     1.391052385786   119.99416568   180.00489643
 H      5   3   2     1.094758169643   119.99538714   179.99320997
 C      5   3   2     1.391196467074   120.00979496     0.00000000
 H      7   5   3     1.094644006059   120.00465788   179.99926687
 C      7   5   3     1.391128157288   119.99166539     0.00000000
 H      9   7   5     1.094671713346   119.99075697   179.98927286
 C      9   7   5     1.391101437710   120.00212443     0.00000000
 H     11   9   7     1.094663190210   120.00453073   180.00552234

---------------------------
INTERNAL COORDINATES (A.U.)
---------------------------
 H      0   0   0     0.000000000000     0.00000000     0.00000000
 C      1   0   0     2.068825652700     0.00000000     0.00000000
 C      2   1   0     2.629030708611   119.98964325     0.00000000
 H      3   2   1     2.068602374189   120.01328615     0.00000000
 C      3   2   1     2.628708047073   119.99416568   180.00489643
 H      5   3   2     2.068793123498   119.99538714   179.99320997
 C      5   3   2     2.628980321249   120.00979496     0.00000000
 H      7   5   3     2.068577385589   120.00465788   179.99926687
 C      7   5   3     2.628851234461   119.99166539     0.00000000
 H      9   7   5     2.068629744774   119.99075697   179.98927286
 C      9   7   5     2.628800741777   120.00212443     0.00000000
 H     11   9   7     2.068613638381   120.00453073   180.00552234

---------------------
BASIS SET INFORMATION
---------------------
There are 2 groups of distinct atoms

 Group   1 Type H   : 4s1p contracted to 2s1p pattern {31/1}
 Group   2 Type C   : 7s4p1d contracted to 3s2p1d pattern {511/31/1}

Atom   0H    basis set group =>   1
Atom   1C    basis set group =>   2
Atom   2C    basis set group =>   2
Atom   3H    basis set group =>   1
Atom   4C    basis set group =>   2
Atom   5H    basis set group =>   1
Atom   6C    basis set group =>   2
Atom   7H    basis set group =>   1
Atom   8C    basis set group =>   2
Atom   9H    basis set group =>   1
Atom  10C    basis set group =>   2
Atom  11H    basis set group =>   1
---------------------------------
AUXILIARY/J BASIS SET INFORMATION
---------------------------------
There are 2 groups of distinct atoms

 Group   1 Type H   : 5s2p1d contracted to 3s1p1d pattern {311/2/1}
 Group   2 Type C   : 12s5p4d2f1g contracted to 6s4p3d1f1g pattern {711111/2111/211/2/1}

Atom   0H    basis set group =>   1
Atom   1C    basis set group =>   2
Atom   2C    basis set group =>   2
Atom   3H    basis set group =>   1
Atom   4C    basis set group =>   2
Atom   5H    basis set group =>   1
Atom   6C    basis set group =>   2
Atom   7H    basis set group =>   1
Atom   8C    basis set group =>   2
Atom   9H    basis set group =>   1
Atom  10C    basis set group =>   2
Atom  11H    basis set group =>   1


           ************************************************************
           *        Program running with 4 parallel MPI-processes     *
           *              working on a common directory               *
           ************************************************************
------------------------------------------------------------------------------
                           ORCA GTO INTEGRAL CALCULATION
                           -- RI-GTO INTEGRALS CHOSEN --
------------------------------------------------------------------------------
------------------------------------------------------------------------------
                   ___                                                        
                  /   \      - P O W E R E D   B Y -                         
                 /     \                                                     
                 |  |  |   _    _      __       _____    __    __             
                 |  |  |  | |  | |    /  \     |  _  \  |  |  /  |          
                  \  \/   | |  | |   /    \    | | | |  |  | /  /          
                 / \  \   | |__| |  /  /\  \   | |_| |  |  |/  /          
                |  |  |   |  __  | /  /__\  \  |    /   |      \           
                |  |  |   | |  | | |   __   |  |    \   |  |\   \          
                \     /   | |  | | |  |  |  |  | |\  \  |  | \   \       
                 \___/    |_|  |_| |__|  |__|  |_| \__\ |__|  \__/        
                                                                              
                      - O R C A' S   B I G   F R I E N D -                    
                                      &                                       
                       - I N T E G R A L  F E E D E R -                       
                                                                              
 v1 FN, 2020, v2 2021                                                         
------------------------------------------------------------------------------


Reading SHARK input file benzene.SHARKINP.tmp ... ok
----------------------
SHARK INTEGRAL PACKAGE
----------------------

Number of atoms                             ...     12
Number of basis functions                   ...    114
Number of shells                            ...     54
Maximum angular momentum                    ...      2
Integral batch strategy                     ... SHARK/LIBINT Hybrid
RI-J (if used) integral strategy            ... SPLIT-RIJ (Revised 2003 algorithm where possible)
Printlevel                                  ...      1
Contraction scheme used                     ... SEGMENTED contraction
Coulomb Range Separation                    ... NOT USED
Exchange Range Separation                   ... NOT USED
Finite Nucleus Model                        ... NOT USED
Auxiliary Coulomb fitting basis             ... AVAILABLE
   # of basis functions in Aux-J            ...    360
   # of shells in Aux-J                     ...    120
   Maximum angular momentum in Aux-J        ...      4
Auxiliary J/K fitting basis                 ... NOT available
Auxiliary Correlation fitting basis         ... NOT available
Auxiliary 'external' fitting basis          ... NOT available
Integral threshold                          ...     2.500000e-11
Primitive cut-off                           ...     2.500000e-12
Primitive pair pre-selection threshold      ...     2.500000e-12

Calculating pre-screening integrals         ... done (  0.1 sec) Dimension = 54
Organizing shell pair data                  ... done (  0.0 sec)
Shell pair information
Total number of shell pairs                 ...      1485
Shell pairs after pre-screening             ...      1467
Total number of primitive shell pairs       ...      5349
Primitive shell pairs kept                  ...      4140
          la=0 lb=0:    456 shell pairs
          la=1 lb=0:    534 shell pairs
          la=1 lb=1:    168 shell pairs
          la=2 lb=0:    180 shell pairs
          la=2 lb=1:    108 shell pairs
          la=2 lb=2:     21 shell pairs

Calculating one electron integrals          ... done (  0.0 sec)
Calculating RI/J V-Matrix + Cholesky decomp.... done (  0.0 sec)
Calculating Nuclear repulsion               ... done (  0.0 sec) ENN=    203.650454756202 Eh

SHARK setup successfully completed in   0.2 seconds

Maximum memory used throughout the entire GTOINT-calculation: 8.8 MB


           ************************************************************
           *        Program running with 4 parallel MPI-processes     *
           *              working on a common directory               *
           ************************************************************
-------------------------------------------------------------------------------
                                 ORCA SCF
-------------------------------------------------------------------------------

------------
SCF SETTINGS
------------
Hamiltonian:
 Density Functional     Method          .... DFT(GTOs)
 Exchange Functional    Exchange        .... PBE
   PBE kappa parameter   XKappa         ....  0.804000
   PBE mue parameter    XMuePBE         ....  0.219520
 Correlation Functional Correlation     .... PBE
   PBE beta parameter  CBetaPBE         ....  0.066725
 LDA part of GGA corr.  LDAOpt          .... PW91-LDA
 Gradients option       PostSCFGGA      .... off
   Density functional embedding theory  .... OFF
   NL short-range parameter             ....  6.400000
 RI-approximation to the Coulomb term is turned on
   Number of AuxJ basis functions       .... 360


General Settings:
 Integral files         IntName         .... benzene
 Hartree-Fock type      HFTyp           .... RHF
 Total Charge           Charge          ....    0
 Multiplicity           Mult            ....    1
 Number of Electrons    NEL             ....   42
 Basis Dimension        Dim             ....  114
 Nuclear Repulsion      ENuc            ....    203.6504547562 Eh

Convergence Acceleration:
 DIIS                   CNVDIIS         .... on
   Start iteration      DIISMaxIt       ....    12
   Startup error        DIISStart       ....  0.200000
   # of expansion vecs  DIISMaxEq       ....     5
   Bias factor          DIISBfac        ....   1.050
   Max. coefficient     DIISMaxC        ....  10.000
 Trust-Rad. Augm. Hess. CNVTRAH         .... auto
   Auto Start mean grad. ratio tolernc. ....  1.125000
   Auto Start start iteration           ....    20
   Auto Start num. interpolation iter.  ....    10
   Max. Number of Micro iterations      ....    16
   Max. Number of Macro iterations      .... Maxiter - #DIIS iter
   Number of Davidson start vectors     ....     2
   Converg. threshold I  (grad. norm)   ....   1.000e-05
   Converg. threshold II (energy diff.) ....   1.000e-08
   Grad. Scal. Fac. for Micro threshold ....   0.100
   Minimum threshold for Micro iter.    ....   0.010
   NR start threshold (gradient norm)   ....   0.001
   Initial trust radius                 ....   0.400
   Minimum AH scaling param. (alpha)    ....   1.000
   Maximum AH scaling param. (alpha)    .... 1000.000
   Orbital update algorithm             .... Taylor
   White noise on init. David. guess    .... on
   Maximum white noise                  ....   0.010
   Quad. conv. algorithm                .... NR
 SOSCF                  CNVSOSCF        .... on
   Start iteration      SOSCFMaxIt      ....   150
   Startup grad/error   SOSCFStart      ....  0.003300
 Level Shifting         CNVShift        .... on
   Level shift para.    LevelShift      ....    0.2500
   Turn off err/grad.   ShiftErr        ....    0.0010
 Zerner damping         CNVZerner       .... off
 Static damping         CNVDamp         .... on
   Fraction old density DampFac         ....    0.7000
   Max. Damping (<1)    DampMax         ....    0.9800
   Min. Damping (>=0)   DampMin         ....    0.0000
   Turn off err/grad.   DampErr         ....    0.1000
 Fernandez-Rico         CNVRico         .... off

SCF Procedure:
 Maximum # iterations   MaxIter         ....   125
 SCF integral mode      SCFMode         .... Direct
   Integral package                     .... SHARK and LIBINT hybrid scheme
 Reset frequency        DirectResetFreq ....    20
 Integral Threshold     Thresh          ....  2.500e-11 Eh
 Primitive CutOff       TCut            ....  2.500e-12 Eh

Convergence Tolerance:
 Convergence Check Mode ConvCheckMode   .... Total+1el-Energy
 Convergence forced     ConvForced      .... 0
 Energy Change          TolE            ....  1.000e-08 Eh
 1-El. energy change                    ....  1.000e-05 Eh
 Orbital Gradient       TolG            ....  1.000e-05
 Orbital Rotation angle TolX            ....  1.000e-05
 DIIS Error             TolErr          ....  5.000e-07


Diagonalization of the overlap matrix:
Smallest eigenvalue                        ... 3.070e-04
Time for diagonalization                   ...    0.063 sec
Threshold for overlap eigenvalues          ... 1.000e-08
Number of eigenvalues below threshold      ... 0
Time for construction of square roots      ...    0.003 sec
Total time needed                          ...    0.066 sec

Time for model grid setup =    0.081 sec

------------------------------
INITIAL GUESS: MODEL POTENTIAL
------------------------------
Loading Hartree-Fock densities                     ... done
Calculating cut-offs                               ... done
Initializing the effective Hamiltonian             ... done
Setting up the integral package (SHARK)            ... done
Starting the Coulomb interaction                   ... done (   0.0 sec)
Reading the grid                                   ... done
Mapping shells                                     ... done
Starting the XC term evaluation                    ... done (   0.1 sec)
  promolecular density results
     # of electrons  =     41.997370252
     EX              =    -32.423699785
     EC              =     -1.368400586
     EX+EC           =    -33.792100371
Transforming the Hamiltonian                       ... done (   0.0 sec)
Diagonalizing the Hamiltonian                      ... done (   0.0 sec)
Back transforming the eigenvectors                 ... done (   0.0 sec)
Now organizing SCF variables                       ... done
                      ------------------
                      INITIAL GUESS DONE (   0.2 sec)
                      ------------------
-------------------
DFT GRID GENERATION
-------------------

General Integration Accuracy     IntAcc      ... 4.388
Radial Grid Type                 RadialGrid  ... OptM3 with GC (2021)
Angular Grid (max. ang.)         AngularGrid ... 4 (Lebedev-302)
Angular grid pruning method      GridPruning ... 4 (adaptive)
Weight generation scheme         WeightScheme... Becke
Basis function cutoff            BFCut       ... 1.0000e-11
Integration weight cutoff        WCut        ... 1.0000e-14
Angular grids for H and He will be reduced by one unit
Partially contracted basis set               ... off
Rotationally invariant grid construction     ... off

Total number of grid points                  ...    55536
Total number of batches                      ...      872
Average number of points per batch           ...       63
Average number of grid points per atom       ...     4628
Time for grid setup =    0.353 sec

--------------
SCF ITERATIONS
--------------
ITER       Energy         Delta-E        Max-DP      RMS-DP      [F,P]     Damp
               ***  Starting incremental Fock matrix formation  ***
  0   -231.6597821535   0.000000000000 0.04566300  0.00243321  0.1177150 0.7000
  1   -231.7139266430  -0.054144489435 0.02898371  0.00177829  0.0544813 0.7000
                               ***Turning on DIIS***
  2   -231.7346154104  -0.020688767391 0.04467679  0.00302100  0.0195352 0.0000
  3   -231.7627818456  -0.028166435194 0.01928766  0.00136706  0.0395261 0.0000
  4   -231.7725540089  -0.009772163358 0.00651303  0.00036363  0.0072902 0.0000
                      *** Initiating the SOSCF procedure ***
                           *** Shutting down DIIS ***
                      *** Re-Reading the Fockian *** 
                      *** Removing any level shift *** 
ITER      Energy       Delta-E        Grad      Rot      Max-DP    RMS-DP
  5   -231.77299048  -0.0004364681  0.000720  0.000720  0.002266  0.000148
               *** Restarting incremental Fock matrix formation ***
  6   -231.77301239  -0.0000219128  0.000272  0.000605  0.001281  0.000089
  7   -231.77301306  -0.0000006733  0.000214  0.000195  0.000280  0.000020
  8   -231.77301401  -0.0000009515  0.000058  0.000068  0.000286  0.000017
  9   -231.77301407  -0.0000000541  0.000024  0.000023  0.000069  0.000004
 10   -231.77301408  -0.0000000151  0.000003  0.000014  0.000014  0.000001
 11   -231.77301409  -0.0000000023  0.000007  0.000011  0.000009  0.000000
                  ***Gradient check signals convergence***
              ***Rediagonalizing the Fockian in SOSCF/NRSCF***

               *****************************************************
               *                     SUCCESS                       *
               *           SCF CONVERGED AFTER  12 CYCLES          *
               *****************************************************


----------------
TOTAL SCF ENERGY
----------------

Total Energy       :         -231.77301409 Eh           -6306.86435 eV

Components:
Nuclear Repulsion  :          203.65045476 Eh            5541.61060 eV
Electronic Energy  :         -435.42346885 Eh          -11848.47495 eV
One Electron Energy:         -714.29233038 Eh          -19436.88246 eV
Two Electron Energy:          278.86886154 Eh            7588.40751 eV

Virial components:
Potential Energy   :         -461.08848982 Eh          -12546.85568 eV
Kinetic Energy     :          229.31547573 Eh            6239.99133 eV
Virial Ratio       :            2.01071684


DFT components:
N(Alpha)           :       21.000009225406 electrons
N(Beta)            :       21.000009225406 electrons
N(Total)           :       42.000018450811 electrons
E(X)               :      -33.035102340757 Eh       
E(C)               :       -1.382182111620 Eh       
E(XC)              :      -34.417284452377 Eh       
DFET-embed. en.    :        0.000000000000 Eh       

---------------
SCF CONVERGENCE
---------------

  Last Energy change         ...   -3.4316e-09  Tolerance :   1.0000e-08
  Last MAX-Density change    ...    4.7140e-06  Tolerance :   1.0000e-07
  Last RMS-Density change    ...    3.0449e-07  Tolerance :   5.0000e-09
  Last Orbital Gradient      ...    9.7102e-07  Tolerance :   1.0000e-05
  Last Orbital Rotation      ...    1.3966e-06  Tolerance :   1.0000e-05

             **** THE GBW FILE WAS UPDATED (benzene.gbw) ****
             **** DENSITY benzene.scfp WAS UPDATED ****
             **** ENERGY FILE WAS UPDATED (benzene.en.tmp) ****
             **** THE GBW FILE WAS UPDATED (benzene.gbw) ****
             **** DENSITY benzene.scfp WAS UPDATED ****
----------------
ORBITAL ENERGIES
----------------

  NO   OCC          E(Eh)            E(eV) 
   0   2.0000      -9.898644      -269.3558 
   1   2.0000      -9.898564      -269.3536 
   2   2.0000      -9.898557      -269.3534 
   3   2.0000      -9.898323      -269.3470 
   4   2.0000      -9.898315      -269.3468 
   5   2.0000      -9.898286      -269.3461 
   6   2.0000      -0.771617       -20.9968 
   7   2.0000      -0.667154       -18.1542 
   8   2.0000      -0.667136       -18.1537 
   9   2.0000      -0.535767       -14.5790 
  10   2.0000      -0.535748       -14.5784 
  11   2.0000      -0.468961       -12.7611 
  12   2.0000      -0.401080       -10.9139 
  13   2.0000      -0.398638       -10.8475 
  14   2.0000      -0.371709       -10.1147 
  15   2.0000      -0.371691       -10.1142 
  16   2.0000      -0.330852        -9.0030 
  17   2.0000      -0.298500        -8.1226 
  18   2.0000      -0.298455        -8.1214 
  19   2.0000      -0.229465        -6.2441 
  20   2.0000      -0.229451        -6.2437 
  21   0.0000      -0.036104        -0.9824 
  22   0.0000      -0.036076        -0.9817 
  23   0.0000       0.035526         0.9667 
  24   0.0000       0.078308         2.1309 
  25   0.0000       0.078312         2.1310 
  26   0.0000       0.109446         2.9782 
  27   0.0000       0.117543         3.1985 
  28   0.0000       0.117551         3.1987 
  29   0.0000       0.138270         3.7625 
  30   0.0000       0.255697         6.9579 
  31   0.0000       0.255719         6.9585 
  32   0.0000       0.267286         7.2732 
  33   0.0000       0.267336         7.2746 
  34   0.0000       0.336270         9.1504 
  35   0.0000       0.376136        10.2352 
  36   0.0000       0.387800        10.5526 
  37   0.0000       0.387812        10.5529 
  38   0.0000       0.399941        10.8829 
  39   0.0000       0.427379        11.6296 
  40   0.0000       0.433863        11.8060 
  41   0.0000       0.465473        12.6662 
  42   0.0000       0.465510        12.6672 
  43   0.0000       0.501093        13.6354 
  44   0.0000       0.501103        13.6357 
  45   0.0000       0.501556        13.6480 
  46   0.0000       0.562685        15.3114 
  47   0.0000       0.562697        15.3118 
  48   0.0000       0.590741        16.0749 
  49   0.0000       0.590751        16.0752 
  50   0.0000       0.627284        17.0693 
  51   0.0000       0.627302        17.0698 
  52   0.0000       0.633879        17.2487 
  53   0.0000       0.685397        18.6506 
  54   0.0000       0.685418        18.6512 
  55   0.0000       0.691826        18.8255 
  56   0.0000       0.697456        18.9788 
  57   0.0000       0.731559        19.9067 
  58   0.0000       0.731622        19.9084 
  59   0.0000       0.796550        21.6752 
  60   0.0000       0.850838        23.1525 
  61   0.0000       0.981248        26.7011 
  62   0.0000       0.981269        26.7017 
  63   0.0000       1.093284        29.7498 
  64   0.0000       1.184037        32.2193 
  65   0.0000       1.184057        32.2198 
  66   0.0000       1.186939        32.2982 
  67   0.0000       1.223696        33.2985 
  68   0.0000       1.223744        33.2998 
  69   0.0000       1.244023        33.8516 
  70   0.0000       1.244058        33.8525 
  71   0.0000       1.473125        40.0858 
  72   0.0000       1.570154        42.7261 
  73   0.0000       1.587782        43.2058 
  74   0.0000       1.609145        43.7871 
  75   0.0000       1.674552        45.5669 
  76   0.0000       1.676751        45.6267 
  77   0.0000       1.676778        45.6275 
  78   0.0000       1.689125        45.9634 
  79   0.0000       1.689154        45.9642 
  80   0.0000       1.698946        46.2307 
  81   0.0000       1.698988        46.2318 
  82   0.0000       1.765187        48.0332 
  83   0.0000       1.765234        48.0345 
  84   0.0000       1.856032        50.5052 
  85   0.0000       1.907646        51.9097 
  86   0.0000       1.907662        51.9101 
  87   0.0000       1.912412        52.0394 
  88   0.0000       1.914535        52.0971 
  89   0.0000       1.914601        52.0989 
  90   0.0000       2.052666        55.8559 
  91   0.0000       2.063490        56.1504 
  92   0.0000       2.071237        56.3612 
  93   0.0000       2.071273        56.3622 
  94   0.0000       2.225317        60.5539 
  95   0.0000       2.225473        60.5582 
  96   0.0000       2.235828        60.8400 
  97   0.0000       2.235841        60.8403 
  98   0.0000       2.271530        61.8115 
  99   0.0000       2.271581        61.8129 
 100   0.0000       2.482311        67.5471 
 101   0.0000       2.527394        68.7739 
 102   0.0000       2.527470        68.7759 
 103   0.0000       2.573775        70.0360 
 104   0.0000       2.641500        71.8789 
 105   0.0000       2.642208        71.8981 
 106   0.0000       2.642266        71.8997 
 107   0.0000       2.785496        75.7972 
 108   0.0000       2.785610        75.8003 
 109   0.0000       2.815946        76.6258 
 110   0.0000       3.043181        82.8092 
 111   0.0000       3.043234        82.8106 
 112   0.0000       3.167563        86.1938 
 113   0.0000       3.586473        97.5929 

                    ********************************
                    * MULLIKEN POPULATION ANALYSIS *
                    ********************************

-----------------------
MULLIKEN ATOMIC CHARGES
-----------------------
   0 H :   -0.008582
   1 C :    0.008545
   2 C :    0.008657
   3 H :   -0.008637
   4 C :    0.008557
   5 H :   -0.008605
   6 C :    0.008629
   7 H :   -0.008642
   8 C :    0.008635
   9 H :   -0.008629
  10 C :    0.008708
  11 H :   -0.008636
Sum of atomic charges:    0.0000000

--------------------------------
MULLIKEN REDUCED ORBITAL CHARGES
--------------------------------
  0 H s       :     0.985925  s :     0.985925
      pz      :     0.011513  p :     0.022657
      px      :     0.006132
      py      :     0.005012
  1 C s       :     3.165430  s :     3.165430
      pz      :     0.871115  p :     2.793346
      px      :     0.936413
      py      :     0.985818
      dz2     :     0.007981  d :     0.032679
      dxz     :     0.011609
      dyz     :     0.003245
      dx2y2   :     0.004490
      dxy     :     0.005354
  2 C s       :     3.165390  s :     3.165390
      pz      :     0.872948  p :     2.793272
      px      :     0.934017
      py      :     0.986307
      dz2     :     0.007933  d :     0.032681
      dxz     :     0.011713
      dyz     :     0.003285
      dx2y2   :     0.004466
      dxy     :     0.005283
  3 H s       :     0.985974  s :     0.985974
      pz      :     0.011364  p :     0.022662
      px      :     0.006324
      py      :     0.004975
  4 C s       :     3.165358  s :     3.165358
      pz      :     0.966936  p :     2.793402
      px      :     0.840307
      py      :     0.986160
      dz2     :     0.010361  d :     0.032682
      dxz     :     0.009525
      dyz     :     0.006334
      dx2y2   :     0.004218
      dxy     :     0.002244
  5 H s       :     0.985947  s :     0.985947
      pz      :     0.003620  p :     0.022658
      px      :     0.014054
      py      :     0.004984
  6 C s       :     3.165418  s :     3.165418
      pz      :     0.871081  p :     2.793274
      px      :     0.936357
      py      :     0.985835
      dz2     :     0.007979  d :     0.032679
      dxz     :     0.011612
      dyz     :     0.003244
      dx2y2   :     0.004489
      dxy     :     0.005355
  7 H s       :     0.985979  s :     0.985979
      pz      :     0.011514  p :     0.022663
      px      :     0.006135
      py      :     0.005014
  8 C s       :     3.165366  s :     3.165366
      pz      :     0.872901  p :     2.793316
      px      :     0.934115
      py      :     0.986299
      dz2     :     0.007936  d :     0.032684
      dxz     :     0.011712
      dyz     :     0.003285
      dx2y2   :     0.004466
      dxy     :     0.005285
  9 H s       :     0.985967  s :     0.985967
      pz      :     0.011366  p :     0.022662
      px      :     0.006322
      py      :     0.004974
 10 C s       :     3.165364  s :     3.165364
      pz      :     0.966875  p :     2.793245
      px      :     0.840177
      py      :     0.986193
      dz2     :     0.010361  d :     0.032683
      dxz     :     0.009526
      dyz     :     0.006334
      dx2y2   :     0.004218
      dxy     :     0.002245
 11 H s       :     0.985973  s :     0.985973
      pz      :     0.003621  p :     0.022662
      px      :     0.014056
      py      :     0.004986


                     *******************************
                     * LOEWDIN POPULATION ANALYSIS *
                     *******************************

----------------------
LOEWDIN ATOMIC CHARGES
----------------------
   0 H :    0.030323
   1 C :   -0.030303
   2 C :   -0.030317
   3 H :    0.030307
   4 C :   -0.030314
   5 H :    0.030314
   6 C :   -0.030308
   7 H :    0.030303
   8 C :   -0.030299
   9 H :    0.030306
  10 C :   -0.030322
  11 H :    0.030309

-------------------------------
LOEWDIN REDUCED ORBITAL CHARGES
-------------------------------
  0 H s       :     0.902749  s :     0.902749
      pz      :     0.034040  p :     0.066928
      px      :     0.018582
      py      :     0.014306
  1 C s       :     2.863601  s :     2.863601
      pz      :     1.045842  p :     3.077484
      px      :     1.063111
      py      :     0.968531
      dz2     :     0.023625  d :     0.089217
      dxz     :     0.034265
      dyz     :     0.006328
      dx2y2   :     0.013539
      dxy     :     0.011460
  2 C s       :     2.863562  s :     2.863562
      pz      :     1.046362  p :     3.077527
      px      :     1.062505
      py      :     0.968659
      dz2     :     0.023559  d :     0.089228
      dxz     :     0.034483
      dyz     :     0.006447
      dx2y2   :     0.013435
      dxy     :     0.011305
  3 H s       :     0.902746  s :     0.902746
      pz      :     0.033611  p :     0.066947
      px      :     0.019138
      py      :     0.014199
  4 C s       :     2.863579  s :     2.863579
      pz      :     1.071042  p :     3.077506
      px      :     1.037850
      py      :     0.968614
      dz2     :     0.030955  d :     0.089230
      dxz     :     0.029623
      dyz     :     0.013867
      dx2y2   :     0.010888
      dxy     :     0.003897
  5 H s       :     0.902756  s :     0.902756
      pz      :     0.011363  p :     0.066930
      px      :     0.041342
      py      :     0.014225
  6 C s       :     2.863569  s :     2.863569
      pz      :     1.045845  p :     3.077518
      px      :     1.063131
      py      :     0.968542
      dz2     :     0.023621  d :     0.089222
      dxz     :     0.034275
      dyz     :     0.006325
      dx2y2   :     0.013539
      dxy     :     0.011462
  7 H s       :     0.902746  s :     0.902746
      pz      :     0.034044  p :     0.066951
      px      :     0.018593
      py      :     0.014313
  8 C s       :     2.863550  s :     2.863550
      pz      :     1.046323  p :     3.077514
      px      :     1.062541
      py      :     0.968650
      dz2     :     0.023564  d :     0.089235
      dxz     :     0.034480
      dyz     :     0.006446
      dx2y2   :     0.013437
      dxy     :     0.011308
  9 H s       :     0.902749  s :     0.902749
      pz      :     0.033618  p :     0.066945
      px      :     0.019129
      py      :     0.014198
 10 C s       :     2.863541  s :     2.863541
      pz      :     1.071035  p :     3.077545
      px      :     1.037869
      py      :     0.968641
      dz2     :     0.030956  d :     0.089236
      dxz     :     0.029627
      dyz     :     0.013867
      dx2y2   :     0.010889
      dxy     :     0.003898
 11 H s       :     0.902745  s :     0.902745
      pz      :     0.011367  p :     0.066946
      px      :     0.041348
      py      :     0.014231


                      *****************************
                      * MAYER POPULATION ANALYSIS *
                      *****************************

  NA   - Mulliken gross atomic population
  ZA   - Total nuclear charge
  QA   - Mulliken gross atomic charge
  VA   - Mayer's total valence
  BVA  - Mayer's bonded valence
  FA   - Mayer's free valence

  ATOM       NA         ZA         QA         VA         BVA        FA
  0 H      1.0086     1.0000    -0.0086     0.9776     0.9776    -0.0000
  1 C      5.9915     6.0000     0.0085     3.8500     3.8500     0.0000
  2 C      5.9913     6.0000     0.0087     3.8501     3.8501     0.0000
  3 H      1.0086     1.0000    -0.0086     0.9776     0.9776     0.0000
  4 C      5.9914     6.0000     0.0086     3.8502     3.8502     0.0000
  5 H      1.0086     1.0000    -0.0086     0.9776     0.9776     0.0000
  6 C      5.9914     6.0000     0.0086     3.8501     3.8501     0.0000
  7 H      1.0086     1.0000    -0.0086     0.9776     0.9776     0.0000
  8 C      5.9914     6.0000     0.0086     3.8500     3.8500     0.0000
  9 H      1.0086     1.0000    -0.0086     0.9776     0.9776    -0.0000
 10 C      5.9913     6.0000     0.0087     3.8500     3.8500    -0.0000
 11 H      1.0086     1.0000    -0.0086     0.9776     0.9776    -0.0000

  Mayer bond orders larger than 0.100000
B(  0-H ,  1-C ) :   0.9794 B(  1-C ,  2-C ) :   1.3899 B(  1-C , 10-C ) :   1.3901 
B(  2-C ,  3-H ) :   0.9794 B(  2-C ,  4-C ) :   1.3902 B(  4-C ,  5-H ) :   0.9794 
B(  4-C ,  6-C ) :   1.3899 B(  6-C ,  7-H ) :   0.9794 B(  6-C ,  8-C ) :   1.3901 
B(  8-C ,  9-H ) :   0.9794 B(  8-C , 10-C ) :   1.3899 B( 10-C , 11-H ) :   0.9794 


-------
TIMINGS
-------

Total SCF time: 0 days 0 hours 0 min 4 sec 

Total time                  ....       4.489 sec
Sum of individual times     ....       3.663 sec  ( 81.6%)

Fock matrix formation       ....       3.057 sec  ( 68.1%)
  Split-RI-J                ....       0.726 sec  ( 23.8% of F)
  XC integration            ....       2.318 sec  ( 75.8% of F)
    Basis function eval.    ....       0.963 sec  ( 41.5% of XC)
    Density eval.           ....       0.426 sec  ( 18.4% of XC)
    XC-Functional eval.     ....       0.267 sec  ( 11.5% of XC)
    XC-Potential eval.      ....       0.506 sec  ( 21.8% of XC)
Diagonalization             ....       0.024 sec  (  0.5%)
Density matrix formation    ....       0.002 sec  (  0.0%)
Population analysis         ....       0.005 sec  (  0.1%)
Initial guess               ....       0.100 sec  (  2.2%)
Orbital Transformation      ....       0.000 sec  (  0.0%)
Orbital Orthonormalization  ....       0.000 sec  (  0.0%)
DIIS solution               ....       0.017 sec  (  0.4%)
SOSCF solution              ....       0.024 sec  (  0.5%)
Grid generation             ....       0.434 sec  (  9.7%)

Maximum memory used throughout the entire SCF-calculation: 15.8 MB

-------------------------   --------------------
FINAL SINGLE POINT ENERGY      -231.773014089446
-------------------------   --------------------



           ************************************************************
           *        Program running with 4 parallel MPI-processes     *
           *              working on a common directory               *
           ************************************************************
------------------------------------------------------------------------------
                         ORCA SCF GRADIENT CALCULATION
------------------------------------------------------------------------------

Gradient of the Kohn-Sham DFT energy:
Kohn-Sham wavefunction type      ... RKS
Hartree-Fock exchange scaling    ...    0.000
Number of operators              ...    1
Number of atoms                  ...   12
Basis set dimensions             ...  114
Integral neglect threshold       ... 2.5e-11
Integral primitive cutoff        ... 2.5e-12
SHARK Integral package           ... ON

Nuc. rep. gradient       (SHARK) ... done (  0.0 sec)
HCore & Overlap gradient (SHARK) ... done (  0.0 sec)
RI-J gradient            (SHARK) ... done (  0.3 sec)
Exchange-correlation gradient    ... done

------------------
CARTESIAN GRADIENT
------------------

   1   H   :   -0.002165296    0.000290907   -0.003792086
   2   C   :   -0.004280380    0.000578980   -0.007784428
   3   C   :    0.004427922    0.000230289   -0.007626246
   4   H   :    0.002246175    0.000112306   -0.003842500
   5   C   :    0.008979033   -0.000373701    0.000174195
   6   H   :    0.004383631   -0.000186179    0.000038666
   7   C   :    0.004344776   -0.000557419    0.007608208
   8   H   :    0.002190855   -0.000300357    0.003873900
   9   C   :   -0.004491737   -0.000227078    0.007672934
  10   H   :   -0.002276582   -0.000116187    0.003818100
  11   C   :   -0.008914367    0.000361104   -0.000115406
  12   H   :   -0.004444031    0.000187335   -0.000025337

Difference to translation invariance:
           :   -0.0000000000   -0.0000000000   -0.0000000000

Difference to rotation invariance:
           :    0.0000562576    0.0000779350   -0.0000204856

Norm of the cartesian gradient     ...    0.0243173705
RMS gradient                       ...    0.0040528951
MAX gradient                       ...    0.0089790335

-------
TIMINGS
-------

Total SCF gradient time            ...        1.543 sec

One electron gradient       ....       0.038 sec  (  2.5%)
RI-J Coulomb gradient       ....       0.290 sec  ( 18.8%)
XC gradient                 ....       1.003 sec  ( 65.0%)

Maximum memory used throughout the entire SCFGRAD-calculation: 15.4 MB
------------------------------------------------------------------------------
                         ORCA GEOMETRY RELAXATION STEP
------------------------------------------------------------------------------

Reading the OPT-File                    .... done
Getting information on internals        .... done
Copying old internal coords+grads       .... done
Making the new internal coordinates     .... (new redundants).... done
Validating the new internal coordinates .... (new redundants).... done
Calculating the B-matrix                .... done
Calculating the G,G- and P matrices     .... done
Transforming gradient to internals      .... done
Projecting the internal gradient        .... done
Number of atoms                         ....  12
Number of internal coordinates          ....  54
Current Energy                          ....  -231.773014089 Eh
Current gradient norm                   ....     0.024317371 Eh/bohr
Maximum allowed component of the step   ....  0.300
Current trust radius                    ....  0.300
Evaluating the initial hessian          ....  (Almloef) done
Projecting the Hessian                  .... done
Forming the augmented Hessian           .... done
Diagonalizing the augmented Hessian     .... done
Last element of RFO vector              ....  0.998175921
Lowest eigenvalues of augmented Hessian:
 -0.002034198  0.026789904  0.026792890  0.026793794  0.026798789
Length of the computed step             ....  0.060482765
The final length of the internal step   ....  0.060482765
Converting the step to cartesian space:
 Initial RMS(Int)=    0.0082306619
Transforming coordinates:
 Iter   0:  RMS(Cart)=    0.0163051786 RMS(Int)=    2.4183542173
 Iter   1:  RMS(Cart)=    0.0000005846 RMS(Int)=    0.0000006026
 Iter   2:  RMS(Cart)=    0.0000000042 RMS(Int)=    0.0000000043
done
Storing new coordinates                 .... done

                                .--------------------.
          ----------------------|Geometry convergence|-------------------------
          Item                value                   Tolerance       Converged
          ---------------------------------------------------------------------
          RMS gradient        0.0046768078            0.0001000000      NO
          MAX gradient        0.0133690350            0.0003000000      NO
          RMS step            0.0082306619            0.0020000000      NO
          MAX step            0.0214092902            0.0040000000      NO
          ........................................................
          Max(Bonds)      0.0113      Max(Angles)    0.01
          Max(Dihed)        0.01      Max(Improp)    0.00
          ---------------------------------------------------------------------

The optimization has not yet converged - more geometry cycles are needed


    ---------------------------------------------------------------------------
                         Redundant Internal Coordinates
                            (Angstroem and degrees)

        Definition                    Value    dE/dq     Step     New-Value
    ----------------------------------------------------------------------------
     1. B(C   1,H   0)                1.0948 -0.004376  0.0065    1.1013   
     2. B(C   2,C   1)                1.3912 -0.013265  0.0112    1.4025   
     3. B(H   3,C   2)                1.0947 -0.004452  0.0066    1.1013   
     4. B(C   4,C   2)                1.3911 -0.013369  0.0113    1.4024   
     5. B(H   5,C   4)                1.0948 -0.004388  0.0065    1.1013   
     6. B(C   6,C   4)                1.3912 -0.013263  0.0112    1.4024   
     7. B(H   7,C   6)                1.0946 -0.004461  0.0066    1.1013   
     8. B(C   8,C   6)                1.3911 -0.013330  0.0113    1.4024   
     9. B(H   9,C   8)                1.0947 -0.004447  0.0066    1.1013   
    10. B(C  10,C   8)                1.3911 -0.013335  0.0113    1.4024   
    11. B(C  10,C   1)                1.3911 -0.013317  0.0113    1.4024   
    12. B(H  11,C  10)                1.0947 -0.004448  0.0066    1.1013   
    13. A(C   2,C   1,C  10)          120.00 -0.000015    0.00    120.00   
    14. A(H   0,C   1,C   2)          119.99 -0.000017    0.00    119.99   
    15. A(H   0,C   1,C  10)          120.01  0.000032   -0.01    120.01   
    16. A(C   1,C   2,C   4)          119.99 -0.000023    0.00    120.00   
    17. A(H   3,C   2,C   4)          119.99 -0.000013    0.00    119.99   
    18. A(C   1,C   2,H   3)          120.01  0.000037   -0.01    120.01   
    19. A(H   5,C   4,C   6)          119.99 -0.000020    0.00    120.00   
    20. A(C   2,C   4,C   6)          120.01  0.000041   -0.01    120.00   
    21. A(C   2,C   4,H   5)          120.00 -0.000021    0.00    120.00   
    22. A(H   7,C   6,C   8)          120.00  0.000010   -0.00    120.00   
    23. A(C   4,C   6,C   8)          119.99 -0.000032    0.00    120.00   
    24. A(C   4,C   6,H   7)          120.00  0.000021   -0.00    120.00   
    25. A(H   9,C   8,C  10)          120.01  0.000015   -0.00    120.00   
    26. A(C   6,C   8,C  10)          120.00  0.000003   -0.00    120.00   
    27. A(C   6,C   8,H   9)          119.99 -0.000018    0.00    119.99   
    28. A(C   8,C  10,H  11)          120.00  0.000001   -0.00    120.00   
    29. A(C   1,C  10,H  11)          119.99 -0.000027    0.00    120.00   
    30. A(C   1,C  10,C   8)          120.00  0.000026   -0.00    120.00   
    31. D(C   4,C   2,C   1,H   0)   -180.00 -0.000001    0.00   -179.99   
    32. D(C   4,C   2,C   1,C  10)     -0.00 -0.000000    0.00     -0.00   
    33. D(H   3,C   2,C   1,C  10)    179.99 -0.000002    0.00    180.00   
    34. D(H   3,C   2,C   1,H   0)     -0.00 -0.000003    0.01      0.00   
    35. D(C   6,C   4,C   2,C   1)     -0.00 -0.000002    0.00      0.00   
    36. D(H   5,C   4,C   2,C   1)    179.99 -0.000005    0.01    180.00   
    37. D(H   5,C   4,C   2,H   3)     -0.00 -0.000003    0.01      0.01   
    38. D(C   6,C   4,C   2,H   3)   -180.00 -0.000001    0.00   -180.00   
    39. D(C   8,C   6,C   4,H   5)   -179.99  0.000007   -0.01   -180.00   
    40. D(C   8,C   6,C   4,C   2)      0.01  0.000004   -0.01     -0.00   
    41. D(H   7,C   6,C   4,H   5)      0.00 -0.000002    0.00      0.01   
    42. D(H   7,C   6,C   4,C   2)    180.00 -0.000004    0.01    180.01   
    43. D(C  10,C   8,C   6,C   4)     -0.01 -0.000004    0.01     -0.00   
    44. D(H   9,C   8,C   6,H   7)     -0.00  0.000003   -0.01     -0.01   
    45. D(H   9,C   8,C   6,C   4)    179.99 -0.000006    0.01    180.00   
    46. D(C  10,C   8,C   6,H   7)   -180.00  0.000004   -0.01   -180.01   
    47. D(H  11,C  10,C   8,H   9)      0.01  0.000006   -0.01     -0.00   
    48. D(C   1,C  10,C   8,H   9)   -179.99  0.000004   -0.01   -180.00   
    49. D(C   1,C  10,C   8,C   6)      0.00  0.000002   -0.00      0.00   
    50. D(H  11,C  10,C   1,C   2)    180.00 -0.000002    0.00    180.00   
    51. D(H  11,C  10,C   1,H   0)     -0.01 -0.000000    0.00     -0.01   
    52. D(H  11,C  10,C   8,C   6)   -179.99  0.000004   -0.01   -180.00   
    53. D(C   8,C  10,C   1,C   2)      0.00  0.000000   -0.00      0.00   
    54. D(C   8,C  10,C   1,H   0)    179.99  0.000001   -0.00    179.99   
    ----------------------------------------------------------------------------

         *************************************************************
         *                GEOMETRY OPTIMIZATION CYCLE   2            *
         *************************************************************
---------------------------------
CARTESIAN COORDINATES (ANGSTROEM)
---------------------------------
  H      1.228131   -0.166395    2.175436
  C      0.688003   -0.093139    1.218504
  C     -0.713236   -0.035503    1.206992
  H     -1.273421   -0.063427    2.154736
  C     -1.401145    0.057625   -0.011525
  H     -2.501458    0.102930   -0.020584
  C     -0.687957    0.093114   -1.218565
  H     -1.228198    0.166375   -2.175422
  C      0.713239    0.035469   -1.206990
  H      1.273234    0.063359   -2.154856
  C      1.401202   -0.057652    0.011523
  H      2.501506   -0.102957    0.020652

----------------------------
CARTESIAN COORDINATES (A.U.)
----------------------------
  NO LB      ZA    FRAG     MASS         X           Y           Z
   0 H     1.0000    0     1.008    2.320832   -0.314440    4.110978
   1 C     6.0000    0    12.011    1.300137   -0.176007    2.302638
   2 C     6.0000    0    12.011   -1.347821   -0.067091    2.280884
   3 H     1.0000    0     1.008   -2.406417   -0.119860    4.071862
   4 C     6.0000    0    12.011   -2.647780    0.108895   -0.021779
   5 H     1.0000    0     1.008   -4.727070    0.194509   -0.038899
   6 C     6.0000    0    12.011   -1.300050    0.175961   -2.302754
   7 H     1.0000    0     1.008   -2.320958    0.314404   -4.110952
   8 C     6.0000    0    12.011    1.347827    0.067026   -2.280881
   9 H     1.0000    0     1.008    2.406063    0.119731   -4.072088
  10 C     6.0000    0    12.011    2.647888   -0.108946    0.021775
  11 H     1.0000    0     1.008    4.727162   -0.194560    0.039027

--------------------------------
INTERNAL COORDINATES (ANGSTROEM)
--------------------------------
 H      0   0   0     0.000000000000     0.00000000     0.00000000
 C      1   0   0     1.101282981792     0.00000000     0.00000000
 C      2   1   0     1.402471172019   119.99263070     0.00000000
 H      3   2   1     1.101274763221   120.00771736     0.00000000
 C      3   2   1     1.402381683709   119.99728216   180.00747060
 H      5   3   2     1.101282284431   119.99846696   180.00274273
 C      5   3   2     1.402441906220   120.00389967     0.00000000
 H      7   5   3     1.101273708435   120.00150013   180.00773094
 C      7   5   3     1.402428823369   119.99620111     0.00000000
 H      9   7   5     1.101281516693   119.99350759   180.00109597
 C      2   1   3     1.402395730154   120.00693385   180.00790588
 H     11   2   1     1.101274647299   119.99564641     0.00000000

---------------------------
INTERNAL COORDINATES (A.U.)
---------------------------
 H      0   0   0     0.000000000000     0.00000000     0.00000000
 C      1   0   0     2.081123231536     0.00000000     0.00000000
 C      2   1   0     2.650286425836   119.99263070     0.00000000
 H      3   2   1     2.081107700687   120.00771736     0.00000000
 C      3   2   1     2.650117317437   119.99728216   180.00747060
 H      5   3   2     2.081121913715   119.99846696   180.00274273
 C      5   3   2     2.650231121490   120.00389967     0.00000000
 H      7   5   3     2.081105707431   120.00150013   180.00773094
 C      7   5   3     2.650206398484   119.99620111     0.00000000
 H      9   7   5     2.081120462899   119.99350759   180.00109597
 C      2   1   3     2.650143861371   120.00693385   180.00790588
 H     11   2   1     2.081107481626   119.99564641     0.00000000



           ************************************************************
           *        Program running with 4 parallel MPI-processes     *
           *              working on a common directory               *
           ************************************************************
------------------------------------------------------------------------------
                   ___                                                        
                  /   \      - P O W E R E D   B Y -                         
                 /     \                                                     
                 |  |  |   _    _      __       _____    __    __             
                 |  |  |  | |  | |    /  \     |  _  \  |  |  /  |          
                  \  \/   | |  | |   /    \    | | | |  |  | /  /          
                 / \  \   | |__| |  /  /\  \   | |_| |  |  |/  /          
                |  |  |   |  __  | /  /__\  \  |    /   |      \           
                |  |  |   | |  | | |   __   |  |    \   |  |\   \          
                \     /   | |  | | |  |  |  |  | |\  \  |  | \   \       
                 \___/    |_|  |_| |__|  |__|  |_| \__\ |__|  \__/        
                                                                              
                      - O R C A' S   B I G   F R I E N D -                    
                                      &                                       
                       - I N T E G R A L  F E E D E R -                       
                                                                              
 v1 FN, 2020, v2 2021                                                         
------------------------------------------------------------------------------


Reading SHARK input file benzene.SHARKINP.tmp ... ok
----------------------
SHARK INTEGRAL PACKAGE
----------------------

Number of atoms                             ...     12
Number of basis functions                   ...    114
Number of shells                            ...     54
Maximum angular momentum                    ...      2
Integral batch strategy                     ... SHARK/LIBINT Hybrid
RI-J (if used) integral strategy            ... SPLIT-RIJ (Revised 2003 algorithm where possible)
Printlevel                                  ...      1
Contraction scheme used                     ... SEGMENTED contraction
Coulomb Range Separation                    ... NOT USED
Exchange Range Separation                   ... NOT USED
Finite Nucleus Model                        ... NOT USED
Auxiliary Coulomb fitting basis             ... AVAILABLE
   # of basis functions in Aux-J            ...    360
   # of shells in Aux-J                     ...    120
   Maximum angular momentum in Aux-J        ...      4
Auxiliary J/K fitting basis                 ... NOT available
Auxiliary Correlation fitting basis         ... NOT available
Auxiliary 'external' fitting basis          ... NOT available
Integral threshold                          ...     2.500000e-11
Primitive cut-off                           ...     2.500000e-12
Primitive pair pre-selection threshold      ...     2.500000e-12

Calculating pre-screening integrals         ... done (  0.1 sec) Dimension = 54
Organizing shell pair data                  ... done (  0.0 sec)
Shell pair information
Total number of shell pairs                 ...      1485
Shell pairs after pre-screening             ...      1467
Total number of primitive shell pairs       ...      5349
Primitive shell pairs kept                  ...      4140
          la=0 lb=0:    456 shell pairs
          la=1 lb=0:    534 shell pairs
          la=1 lb=1:    168 shell pairs
          la=2 lb=0:    180 shell pairs
          la=2 lb=1:    108 shell pairs
          la=2 lb=2:     21 shell pairs

Calculating one electron integrals          ... done (  0.0 sec)
Calculating RI/J V-Matrix + Cholesky decomp.... done (  0.8 sec)
Calculating Nuclear repulsion               ... done (  0.0 sec) ENN=    202.074933341294 Eh

SHARK setup successfully completed in   1.1 seconds

Maximum memory used throughout the entire GTOINT-calculation: 8.8 MB


           ************************************************************
           *        Program running with 4 parallel MPI-processes     *
           *              working on a common directory               *
           ************************************************************

Diagonalization of the overlap matrix:
Smallest eigenvalue                        ... 3.311e-04
Time for diagonalization                   ...    0.003 sec
Threshold for overlap eigenvalues          ... 1.000e-08
Number of eigenvalues below threshold      ... 0
Time for construction of square roots      ...    0.002 sec
Total time needed                          ...    0.005 sec

-------------------
DFT GRID GENERATION
-------------------

General Integration Accuracy     IntAcc      ... 4.388
Radial Grid Type                 RadialGrid  ... OptM3 with GC (2021)
Angular Grid (max. ang.)         AngularGrid ... 4 (Lebedev-302)
Angular grid pruning method      GridPruning ... 4 (adaptive)
Weight generation scheme         WeightScheme... Becke
Basis function cutoff            BFCut       ... 1.0000e-11
Integration weight cutoff        WCut        ... 1.0000e-14
Angular grids for H and He will be reduced by one unit
Partially contracted basis set               ... off
Rotationally invariant grid construction     ... off

Total number of grid points                  ...    55562
Total number of batches                      ...      872
Average number of points per batch           ...       63
Average number of grid points per atom       ...     4630
Time for grid setup =    0.357 sec

--------------
SCF ITERATIONS
--------------
ITER       Energy         Delta-E        Max-DP      RMS-DP      [F,P]     Damp
               ***  Starting incremental Fock matrix formation  ***
                      *** Initiating the SOSCF procedure ***
                      *** Re-Reading the Fockian *** 
                      *** Removing any level shift *** 
ITER      Energy       Delta-E        Grad      Rot      Max-DP    RMS-DP
  0   -231.77397514 -231.7739751387  0.002916  0.002916  0.022732  0.001114
               *** Restarting incremental Fock matrix formation ***
  1   -231.77414151  -0.0001663739  0.000912  0.001702  0.004133  0.000232
  2   -231.77413085   0.0000106594  0.001210  0.001111  0.001336  0.000095
  3   -231.77416037  -0.0000295211  0.000023  0.000041  0.000203  0.000010
  4   -231.77416038  -0.0000000047  0.000014  0.000044  0.000036  0.000002
  5   -231.77416038  -0.0000000027  0.000016  0.000031  0.000053  0.000003
  6   -231.77416038  -0.0000000027  0.000007  0.000008  0.000024  0.000001
                 **** Energy Check signals convergence ****
              ***Rediagonalizing the Fockian in SOSCF/NRSCF***

               *****************************************************
               *                     SUCCESS                       *
               *           SCF CONVERGED AFTER   7 CYCLES          *
               *****************************************************

Total Energy       :         -231.77416039 Eh           -6306.89554 eV
  Last Energy change         ...   -2.9477e-09  Tolerance :   1.0000e-08
  Last MAX-Density change    ...    8.7444e-06  Tolerance :   1.0000e-07
             **** THE GBW FILE WAS UPDATED (benzene.gbw) ****
             **** DENSITY benzene.scfp WAS UPDATED ****
             **** ENERGY FILE WAS UPDATED (benzene.en.tmp) ****
             **** THE GBW FILE WAS UPDATED (benzene.gbw) ****
             **** DENSITY benzene.scfp WAS UPDATED ****
Total SCF time: 0 days 0 hours 0 min 2 sec 

Maximum memory used throughout the entire SCF-calculation: 15.7 MB

-------------------------   --------------------
FINAL SINGLE POINT ENERGY      -231.774160387314
-------------------------   --------------------



           ************************************************************
           *        Program running with 4 parallel MPI-processes     *
           *              working on a common directory               *
           ************************************************************
------------------------------------------------------------------------------
                         ORCA SCF GRADIENT CALCULATION
------------------------------------------------------------------------------

Gradient of the Kohn-Sham DFT energy:
Kohn-Sham wavefunction type      ... RKS
Hartree-Fock exchange scaling    ...    0.000
Number of operators              ...    1
Number of atoms                  ...   12
Basis set dimensions             ...  114
Integral neglect threshold       ... 2.5e-11
Integral primitive cutoff        ... 2.5e-12
SHARK Integral package           ... ON

Nuc. rep. gradient       (SHARK) ... done (  0.0 sec)
HCore & Overlap gradient (SHARK) ... done (  0.0 sec)
RI-J gradient            (SHARK) ... done (  0.3 sec)
Exchange-correlation gradient    ... done

------------------
CARTESIAN GRADIENT
------------------

   1   H   :    0.000021906   -0.000006329    0.000065839
   2   C   :   -0.001046830    0.000145382   -0.001979965
   3   C   :    0.001116808    0.000055267   -0.001928224
   4   H   :   -0.000045291   -0.000002695    0.000050370
   5   C   :    0.002292408   -0.000093333    0.000059652
   6   H   :   -0.000071166    0.000002906    0.000000585
   7   C   :    0.001093008   -0.000144333    0.001915124
   8   H   :   -0.000032291    0.000006648   -0.000056300
   9   C   :   -0.001138457   -0.000054136    0.001962062
  10   H   :    0.000024935    0.000002302   -0.000064196
  11   C   :   -0.002283708    0.000091223   -0.000032660
  12   H   :    0.000068677   -0.000002902    0.000007713

Difference to translation invariance:
           :    0.0000000000    0.0000000000    0.0000000000

Difference to rotation invariance:
           :    0.0000561331    0.0000827275   -0.0000156222

Norm of the cartesian gradient     ...    0.0055279238
RMS gradient                       ...    0.0009213206
MAX gradient                       ...    0.0022924081

-------
TIMINGS
-------

Total SCF gradient time            ...        1.480 sec

One electron gradient       ....       0.038 sec  (  2.6%)
RI-J Coulomb gradient       ....       0.252 sec  ( 17.1%)
XC gradient                 ....       1.049 sec  ( 70.9%)

Maximum memory used throughout the entire SCFGRAD-calculation: 15.5 MB
------------------------------------------------------------------------------
                         ORCA GEOMETRY RELAXATION STEP
------------------------------------------------------------------------------

Reading the OPT-File                    .... done
Getting information on internals        .... done
Copying old internal coords+grads       .... done
Making the new internal coordinates     .... (new redundants).... done
Validating the new internal coordinates .... (new redundants).... done
Calculating the B-matrix                .... done
Calculating the G,G- and P matrices     .... done
Transforming gradient to internals      .... done
Projecting the internal gradient        .... done
Number of atoms                         ....  12
Number of internal coordinates          ....  54
Current Energy                          ....  -231.774160387 Eh
Current gradient norm                   ....     0.005527924 Eh/bohr
Maximum allowed component of the step   ....  0.300
Current trust radius                    ....  0.300
Updating the Hessian (BFGS)             .... done
Forming the augmented Hessian           .... done
Diagonalizing the augmented Hessian     .... done
Last element of RFO vector              ....  0.999947468
Lowest eigenvalues of augmented Hessian:
 -0.000054944  0.026789901  0.026792888  0.026793797  0.026798796
Length of the computed step             ....  0.010250502
The final length of the internal step   ....  0.010250502
Converting the step to cartesian space:
 Initial RMS(Int)=    0.0013949167
Transforming coordinates:
 Iter   0:  RMS(Cart)=    0.0023685772 RMS(Int)=    0.0013949165
 Iter   1:  RMS(Cart)=    0.0000000454 RMS(Int)=    0.0000000308
done
Storing new coordinates                 .... done

                                .--------------------.
          ----------------------|Geometry convergence|-------------------------
          Item                value                   Tolerance       Converged
          ---------------------------------------------------------------------
          Energy change      -0.0011462979            0.0000050000      NO
          RMS gradient        0.0007295018            0.0001000000      NO
          MAX gradient        0.0022077326            0.0003000000      NO
          RMS step            0.0013949167            0.0020000000      YES
          MAX step            0.0042175285            0.0040000000      NO
          ........................................................
          Max(Bonds)      0.0022      Max(Angles)    0.00
          Max(Dihed)        0.00      Max(Improp)    0.00
          ---------------------------------------------------------------------

The optimization has not yet converged - more geometry cycles are needed


    ---------------------------------------------------------------------------
                         Redundant Internal Coordinates
                            (Angstroem and degrees)

        Definition                    Value    dE/dq     Step     New-Value
    ----------------------------------------------------------------------------
     1. B(C   1,H   0)                1.1013  0.000068 -0.0001    1.1012   
     2. B(C   2,C   1)                1.4025 -0.002165  0.0022    1.4047   
     3. B(H   3,C   2)                1.1013  0.000066 -0.0001    1.1012   
     4. B(C   4,C   2)                1.4024 -0.002208  0.0022    1.4046   
     5. B(H   5,C   4)                1.1013  0.000071 -0.0001    1.1012   
     6. B(C   6,C   4)                1.4024 -0.002171  0.0022    1.4046   
     7. B(H   7,C   6)                1.1013  0.000065 -0.0001    1.1012   
     8. B(C   8,C   6)                1.4024 -0.002192  0.0022    1.4046   
     9. B(H   9,C   8)                1.1013  0.000068 -0.0001    1.1012   
    10. B(C  10,C   8)                1.4024 -0.002191  0.0022    1.4046   
    11. B(C  10,C   1)                1.4024 -0.002197  0.0022    1.4046   
    12. B(H  11,C  10)                1.1013  0.000069 -0.0001    1.1012   
    13. A(C   2,C   1,C  10)          120.00 -0.000008    0.00    120.00   
    14. A(H   0,C   1,C   2)          119.99 -0.000012    0.00    120.00   
    15. A(H   0,C   1,C  10)          120.01  0.000020   -0.00    120.00   
    16. A(C   1,C   2,C   4)          120.00 -0.000012    0.00    120.00   
    17. A(H   3,C   2,C   4)          120.00 -0.000010    0.00    120.00   
    18. A(C   1,C   2,H   3)          120.01  0.000022   -0.00    120.00   
    19. A(H   5,C   4,C   6)          120.00 -0.000013    0.00    120.00   
    20. A(C   2,C   4,C   6)          120.00  0.000024   -0.00    120.00   
    21. A(C   2,C   4,H   5)          120.00 -0.000011    0.00    120.00   
    22. A(H   7,C   6,C   8)          120.00  0.000008   -0.00    120.00   
    23. A(C   4,C   6,C   8)          120.00 -0.000021    0.00    120.00   
    24. A(C   4,C   6,H   7)          120.00  0.000012   -0.00    120.00   
    25. A(H   9,C   8,C  10)          120.00  0.000008   -0.00    120.00   
    26. A(C   6,C   8,C  10)          120.00  0.000003   -0.00    120.00   
    27. A(C   6,C   8,H   9)          119.99 -0.000011    0.00    120.00   
    28. A(C   8,C  10,H  11)          120.00  0.000003   -0.00    120.00   
    29. A(C   1,C  10,H  11)          120.00 -0.000016    0.00    120.00   
    30. A(C   1,C  10,C   8)          120.00  0.000013   -0.00    120.00   
[...]
     17       0.030405   0.001550  -0.029448   0.006549   0.002211   0.021502
     18      -0.001883   0.002927  -0.001355   0.004420  -0.142269   0.003060
     19      -0.046306   0.071610  -0.031640   0.101860   0.020160   0.064547
     20      -0.002495   0.003836  -0.001799   0.005909  -0.252024   0.004215
     21       0.012587  -0.019489   0.006753  -0.021687  -0.141005  -0.015878
     22       0.309708  -0.478177   0.167874  -0.540629   0.014362  -0.402274
     23       0.016590  -0.025596   0.008899  -0.028541  -0.249727  -0.020722
     24       0.001590   0.003077  -0.002999  -0.002966  -0.147623  -0.003097
     25       0.038756   0.075926  -0.072439  -0.078326  -0.007848  -0.064633
     26       0.002059   0.004054  -0.003775  -0.004609   0.249725  -0.002695
     27      -0.010534  -0.020615   0.015595   0.017059  -0.146059   0.015871
     28      -0.259303  -0.507304   0.384350   0.415688  -0.004584   0.402237
     29      -0.013883  -0.027125   0.020666   0.021786   0.247284   0.022372
     30       0.003474   0.000142   0.004355  -0.001453   0.289905   0.001742
     31       0.085236   0.004376   0.104055  -0.023550  -0.012320   0.064629
     32       0.004544   0.000237   0.005564  -0.001283   0.002311   0.003453
     33      -0.023177  -0.001221  -0.022374   0.004609   0.287011  -0.017362
     34      -0.568950  -0.029080  -0.551999   0.125036  -0.009679  -0.402097
     35      -0.030407  -0.001550  -0.029441   0.006552   0.002233  -0.021507
                 18         19         20         21         22         23    
      0       0.148591   0.229974  -0.423050  -0.355189   0.271981   0.419734
      1      -0.013914  -0.008985   0.001766   0.003705  -0.003196  -0.004160
      2       0.263172  -0.002905   0.289469   0.200718  -0.147456  -0.241308
      3       0.134465   0.073437  -0.039637  -0.016173   0.028703   0.038272
      4      -0.019223  -0.007046  -0.002042   0.000180  -0.000682  -0.000166
      5       0.238159   0.075164   0.068583   0.009070  -0.009221  -0.026098
      6      -0.139381  -0.082804  -0.014849   0.015975   0.024978  -0.040132
      7      -0.005959   0.000681   0.005272  -0.001152  -0.001397   0.003108
      8       0.235982   0.050677  -0.087639   0.009333   0.007248  -0.027486
      9      -0.153992  -0.340735  -0.332523   0.350932   0.230359  -0.437209
     10      -0.013559   0.018735   0.028563  -0.025302  -0.016260   0.031720
     11       0.260034  -0.092317  -0.281738   0.206549   0.128924  -0.260902
     12      -0.273932   0.016725   0.108075   0.000186   0.000236  -0.007259
     13       0.010291   0.003198  -0.005015   0.000974   0.002904   0.000166
     14      -0.002289  -0.072295   0.011585  -0.018418  -0.054613   0.002411
     15      -0.301941   0.023049   0.117002   0.004231   0.005671  -0.006794
     16       0.018309   0.027996  -0.009066   0.021574   0.030420  -0.001103
     17      -0.002151  -0.542880   0.081300  -0.406879  -0.573473   0.025912
     18      -0.134430   0.073426  -0.039653  -0.016165  -0.028702  -0.038271
     19       0.019224  -0.007046  -0.002041   0.000180   0.000682   0.000166
     20      -0.238173   0.075172   0.068576   0.009061   0.009224   0.026094
     21      -0.148481   0.229957  -0.423095  -0.355133  -0.271987  -0.419761
     22       0.013909  -0.008983   0.001766   0.003703   0.003196   0.004160
     23      -0.263231  -0.002901   0.289497   0.200698   0.147476   0.241338
     24       0.139378  -0.082794  -0.014842   0.015984  -0.024977   0.040146
     25       0.005957   0.000681   0.005273  -0.001152   0.001396  -0.003108
     26      -0.235984   0.050681  -0.087653   0.009329  -0.007238   0.027481
     27       0.154011  -0.340655  -0.332533   0.350948  -0.230283   0.437282
     28       0.013567   0.018726   0.028565  -0.025301   0.016253  -0.031723
     29      -0.260020  -0.092252  -0.281738   0.206521  -0.128854   0.260902
     30       0.273892   0.016726   0.108091   0.000191  -0.000244   0.007243
     31      -0.010289   0.003198  -0.005016   0.000974  -0.002903  -0.000166
     32       0.002306  -0.072299   0.011596  -0.018427   0.054602  -0.002407
     33       0.301899   0.023058   0.117018   0.004246  -0.005686   0.006777
     34      -0.018314   0.027999  -0.009071   0.021580  -0.030413   0.001103
     35       0.002184  -0.542915   0.081364  -0.406993   0.573364  -0.025879
                 24         25         26         27         28         29    
      0      -0.351574   0.169702  -0.119439  -0.449712   0.312178   0.147379
      1       0.003652  -0.001789  -0.005983   0.007686  -0.001264  -0.012202
      2       0.198775  -0.095784   0.203119   0.197729  -0.213843   0.118478
      3       0.052593  -0.312621   0.100762   0.108448  -0.322200   0.018594
      4      -0.000546   0.003282  -0.006968   0.001327   0.005136  -0.009671
      5      -0.029717   0.176846   0.053515  -0.107348   0.149308   0.166663
      6       0.051978   0.308751  -0.125533   0.076926   0.261894  -0.183517
      7      -0.003755  -0.022262   0.003921  -0.009476  -0.011491   0.019569
      8       0.030582   0.181814   0.022368   0.118779   0.015564  -0.226559
      9      -0.347334  -0.166791   0.224763  -0.401616  -0.144919   0.309922
     10       0.025077   0.012121  -0.022544   0.024181   0.018888  -0.015207
     11      -0.204533  -0.098165   0.250511  -0.146266  -0.243195   0.047474
     12      -0.000629   0.003775   0.015016  -0.103216  -0.149316   0.048899
     13      -0.003204   0.018974   0.007830   0.005338  -0.000254  -0.020111
     14       0.060409  -0.358618  -0.157976  -0.021346   0.118686   0.339374
     15       0.004196  -0.001980   0.010948  -0.127674  -0.167312   0.063492
     16       0.021356  -0.010265  -0.028470   0.001622   0.013662   0.016666
     17      -0.402904   0.193570   0.524569   0.066755  -0.128961  -0.360125
     18      -0.052598  -0.312621   0.100746   0.108463   0.322203  -0.018630
     19       0.000547   0.003283  -0.006967   0.001327  -0.005137   0.009672
     20       0.029720   0.176840   0.053515  -0.107361  -0.149280  -0.166645
     21       0.351537   0.169660  -0.119417  -0.449712  -0.312122  -0.147315
     22      -0.003651  -0.001788  -0.005983   0.007685   0.001260   0.012201
     23      -0.198775  -0.095806   0.203112   0.197755   0.213895  -0.118513
     24      -0.051969   0.308765  -0.125512   0.076921  -0.261927   0.183531
     25       0.003755  -0.022261   0.003920  -0.009476   0.011493  -0.019569
     26      -0.030579   0.181783   0.022376   0.118790  -0.015572   0.226546
     27       0.347375  -0.166811   0.224748  -0.401671   0.144982  -0.309943
     28      -0.025078   0.012122  -0.022541   0.024182  -0.018891   0.015208
     29       0.204525  -0.098174   0.250468  -0.146245   0.243203  -0.047468
     30       0.000626   0.003799   0.015006  -0.103215   0.149335  -0.048882
     31       0.003205   0.018972   0.007830   0.005339   0.000255   0.020110
     32      -0.060416  -0.358588  -0.157980  -0.021363  -0.118714  -0.339371
     33      -0.004207  -0.001962   0.010925  -0.127674   0.167329  -0.063484
     34      -0.021355  -0.010258  -0.028468   0.001620  -0.013665  -0.016664
     35       0.402908   0.193462   0.524559   0.066786   0.129003   0.360084
                 30         31         32         33         34         35    
      0      -0.199349   0.147312   0.240774  -0.182623  -0.215012  -0.199448
      1       0.027032  -0.019806  -0.032749   0.025096   0.028868   0.027047
      2      -0.353090   0.257810   0.428386  -0.329683  -0.375501  -0.353300
      3       0.016561  -0.014237  -0.019624   0.014164   0.021297   0.018466
      4      -0.002246   0.001712   0.002793  -0.002233  -0.002617  -0.002504
      5       0.029321  -0.021146  -0.037232   0.030923   0.032665   0.032710
      6       0.017152   0.013815  -0.020953   0.005534  -0.025947  -0.019163
      7       0.000855   0.000473  -0.001164   0.000652  -0.001164  -0.000955
      8      -0.029011  -0.019346   0.037680  -0.016404   0.041487   0.032435
      9      -0.206479  -0.142117   0.255400  -0.092596   0.277835   0.207005
     10      -0.010292  -0.006921   0.012821  -0.005016   0.013715   0.010322
     11       0.349386   0.237396  -0.433900   0.164164  -0.467601  -0.350316
     12      -0.033877  -0.049253   0.001054   0.050628  -0.009756  -0.037562
     13       0.001395   0.002031   0.000082  -0.002046   0.000601   0.001546
     14      -0.000280  -0.000456  -0.002333  -0.000303  -0.003804  -0.000311
     15       0.407769   0.575347  -0.012054  -0.562777   0.108844   0.405616
     16      -0.016793  -0.023694   0.000402   0.023137  -0.004693  -0.016707
     17       0.003359   0.004774   0.001689  -0.003868   0.004842   0.003340
     18       0.016552   0.014234   0.019593   0.014175   0.021327  -0.018477
     19      -0.002244  -0.001712  -0.002789  -0.002234  -0.002621   0.002505
     20       0.029302   0.021131   0.037177   0.030936   0.032719  -0.032729
     21      -0.199250  -0.147249  -0.240442  -0.182740  -0.215378   0.199583
     22       0.027017   0.019797   0.032703   0.025111   0.028917  -0.027064
     23      -0.352881  -0.257666  -0.427763  -0.329857  -0.376116   0.353510
     24       0.017167  -0.013819   0.020982   0.005529  -0.025917   0.019144
     25       0.000856  -0.000473   0.001165   0.000652  -0.001162   0.000954
     26      -0.029041   0.019362  -0.037732  -0.016402   0.041440  -0.032405
     27      -0.206648   0.142180  -0.255712  -0.092555   0.277474  -0.206777
     28      -0.010302   0.006925  -0.012838  -0.005014   0.013698  -0.010312
     29       0.349721  -0.237543   0.434484   0.164121  -0.467053   0.349976
     30      -0.033874   0.049190  -0.001043   0.050692  -0.009776   0.037559
     31       0.001395  -0.002028  -0.000083  -0.002049   0.000602  -0.001546
     32      -0.000280   0.000456   0.002339  -0.000301  -0.003802   0.000311
     33       0.407754  -0.574632   0.011916  -0.563503   0.109068  -0.405589
     34      -0.016792   0.023664  -0.000396   0.023167  -0.004702   0.016705
     35       0.003366  -0.004779  -0.001696  -0.003885   0.004843  -0.003346


-----------
IR SPECTRUM
-----------

 Mode   freq       eps      Int      T**2         TX        TY        TZ
       cm**-1   L/(mol*cm) km/mol    a.u.
----------------------------------------------------------------------------
  6:    401.49   0.000000    0.00  0.000000  (-0.000017 -0.000068  0.000018)
  7:    401.62   0.000000    0.00  0.000000  ( 0.000013 -0.000002  0.000021)
  8:    599.97   0.000000    0.00  0.000000  ( 0.000001 -0.000000 -0.000000)
  9:    599.99   0.000000    0.00  0.000000  ( 0.000000  0.000000 -0.000001)
 10:    668.57   0.016168   81.71  0.007547  (-0.003548 -0.086674 -0.004659)
 11:    714.22   0.000000    0.00  0.000000  (-0.000000 -0.000003 -0.000000)
 12:    839.36   0.000000    0.00  0.000000  (-0.000000 -0.000003 -0.000000)
 13:    839.42   0.000000    0.00  0.000000  (-0.000000 -0.000002 -0.000000)
 14:    963.84   0.000000    0.00  0.000000  (-0.000010  0.000013  0.000013)
 15:    963.87   0.000000    0.00  0.000000  (-0.000011 -0.000009 -0.000031)
 16:    980.33   0.000000    0.00  0.000000  ( 0.000007  0.000004 -0.000002)
 17:    998.58   0.000000    0.00  0.000000  ( 0.000000  0.000001 -0.000000)
 18:   1000.42   0.000000    0.00  0.000000  ( 0.000001 -0.000000  0.000000)
 19:   1033.47   0.001057    5.34  0.000319  (-0.002428  0.001044 -0.017670)
 20:   1033.51   0.001062    5.37  0.000321  (-0.017726  0.000589  0.002466)
 21:   1128.40   0.000000    0.00  0.000000  ( 0.000006  0.000003 -0.000043)
 22:   1150.61   0.000000    0.00  0.000000  (-0.000000 -0.000000  0.000001)
 23:   1150.69   0.000000    0.00  0.000000  ( 0.000002 -0.000000  0.000001)
 24:   1315.10   0.000000    0.00  0.000000  (-0.000000  0.000000 -0.000001)
 25:   1376.24   0.000000    0.00  0.000000  ( 0.000007  0.000001  0.000012)
 26:   1462.96   0.001281    6.47  0.000273  ( 0.001937 -0.000951  0.016386)
 27:   1463.08   0.001282    6.48  0.000273  (-0.016407  0.000577  0.001977)
 28:   1610.15   0.000000    0.00  0.000000  ( 0.000000 -0.000000  0.000001)
 29:   1610.26   0.000000    0.00  0.000000  (-0.000000  0.000000  0.000000)
 30:   3102.13   0.000000    0.00  0.000000  (-0.000060  0.000000  0.000003)
 31:   3111.92   0.000000    0.00  0.000000  (-0.000013  0.000001  0.000000)
 32:   3112.02   0.000000    0.00  0.000000  ( 0.000002  0.000001 -0.000017)
 33:   3126.09   0.005331   26.94  0.000532  ( 0.022585 -0.001135  0.004556)
 34:   3126.10   0.005337   26.97  0.000533  (-0.004608 -0.000998  0.022596)
 35:   3135.15   0.000000    0.00  0.000000  (-0.000005  0.000000  0.000002)

* The epsilon (eps) is given for a Dirac delta lineshape.
** The dipole moment derivative (T) already includes vibrational overlap.

The first frequency considered to be a vibration is 6
The total number of vibrations considered is 30


--------------------------
THERMOCHEMISTRY AT 298.15K
--------------------------

Temperature         ... 298.15 K
Pressure            ... 1.00 atm
Total Mass          ... 78.11 AMU

Throughout the following assumptions are being made:
  (1) The electronic state is orbitally nondegenerate
  (2) There are no thermally accessible electronically excited states
  (3) Hindered rotations indicated by low frequency modes are not
      treated as such but are treated as vibrations and this may
      cause some error
  (4) All equations used are the standard statistical mechanics
      equations for an ideal gas
  (5) All vibrations are strictly harmonic

freq.     401.49  E(vib)   ...       0.19 
freq.     401.62  E(vib)   ...       0.19 
freq.     599.97  E(vib)   ...       0.10 
freq.     599.99  E(vib)   ...       0.10 
freq.     668.57  E(vib)   ...       0.08 
freq.     714.22  E(vib)   ...       0.07 
freq.     839.36  E(vib)   ...       0.04 
freq.     839.42  E(vib)   ...       0.04 
freq.     963.84  E(vib)   ...       0.03 
freq.     963.87  E(vib)   ...       0.03 
freq.     980.33  E(vib)   ...       0.02 
freq.     998.58  E(vib)   ...       0.02 
freq.    1000.42  E(vib)   ...       0.02 
freq.    1033.47  E(vib)   ...       0.02 
freq.    1033.51  E(vib)   ...       0.02 
freq.    1128.40  E(vib)   ...       0.01 
freq.    1150.61  E(vib)   ...       0.01 
freq.    1150.69  E(vib)   ...       0.01 
freq.    1315.10  E(vib)   ...       0.01 
freq.    1376.24  E(vib)   ...       0.01 
freq.    1462.96  E(vib)   ...       0.00 
freq.    1463.08  E(vib)   ...       0.00 
freq.    1610.15  E(vib)   ...       0.00 
freq.    1610.26  E(vib)   ...       0.00 
freq.    3102.13  E(vib)   ...       0.00 
freq.    3111.92  E(vib)   ...       0.00 
freq.    3112.02  E(vib)   ...       0.00 
freq.    3126.09  E(vib)   ...       0.00 
freq.    3126.10  E(vib)   ...       0.00 
freq.    3135.15  E(vib)   ...       0.00 

------------
INNER ENERGY
------------

The inner energy is: U= E(el) + E(ZPE) + E(vib) + E(rot) + E(trans)
    E(el)   - is the total energy from the electronic structure calculation
              = E(kin-el) + E(nuc-el) + E(el-el) + E(nuc-nuc)
    E(ZPE)  - the the zero temperature vibrational energy from the frequency calculation
    E(vib)  - the the finite temperature correction to E(ZPE) due to population
              of excited vibrational states
    E(rot)  - is the rotational thermal energy
    E(trans)- is the translational thermal energy

Summary of contributions to the inner energy U:
Electronic energy                ...   -231.77418918 Eh
Zero point energy                ...      0.09800578 Eh      61.50 kcal/mol
Thermal vibrational correction   ...      0.00166679 Eh       1.05 kcal/mol
Thermal rotational correction    ...      0.00141627 Eh       0.89 kcal/mol
Thermal translational correction ...      0.00141627 Eh       0.89 kcal/mol
-----------------------------------------------------------------------
Total thermal energy                   -231.67168407 Eh


Summary of corrections to the electronic energy:
(perhaps to be used in another calculation)
Total thermal correction                  0.00449933 Eh       2.82 kcal/mol
Non-thermal (ZPE) correction              0.09800578 Eh      61.50 kcal/mol
-----------------------------------------------------------------------
Total correction                          0.10250511 Eh      64.32 kcal/mol


--------
ENTHALPY
--------

The enthalpy is H = U + kB*T
                kB is Boltzmann's constant
Total free energy                 ...   -231.67168407 Eh 
Thermal Enthalpy correction       ...      0.00094421 Eh       0.59 kcal/mol
-----------------------------------------------------------------------
Total Enthalpy                    ...   -231.67073986 Eh


Note: Rotational entropy computed according to Herzberg 
Infrared and Raman Spectra, Chapter V,1, Van Nostrand Reinhold, 1945 
Point Group:  C2h, Symmetry Number:   2  
Rotational constants in cm-1:     0.187120     0.187109     0.093557 

Vibrational entropy computed according to the QRRHO of S. Grimme
Chem.Eur.J. 2012 18 9955


-------
ENTROPY
-------

The entropy contributions are T*S = T*(S(el)+S(vib)+S(rot)+S(trans))
     S(el)   - electronic entropy
     S(vib)  - vibrational entropy
     S(rot)  - rotational entropy
     S(trans)- translational entropy
The entropies will be listed as multiplied by the temperature to get
units of energy

Electronic entropy                ...      0.00000000 Eh      0.00 kcal/mol
Vibrational entropy               ...      0.00224412 Eh      1.41 kcal/mol
Rotational entropy                ...      0.01155730 Eh      7.25 kcal/mol
Translational entropy             ...      0.01852142 Eh     11.62 kcal/mol
-----------------------------------------------------------------------
Final entropy term                ...      0.03232284 Eh     20.28 kcal/mol

In case the symmetry of your molecule has not been determined correctly
or in case you have a reason to use a different symmetry number we print 
out the resulting rotational entropy values for sn=1,12 :
 --------------------------------------------------------
|  sn= 1 | S(rot)=       0.01221176 Eh      7.66 kcal/mol|
|  sn= 2 | S(rot)=       0.01155730 Eh      7.25 kcal/mol|
|  sn= 3 | S(rot)=       0.01117447 Eh      7.01 kcal/mol|
|  sn= 4 | S(rot)=       0.01090284 Eh      6.84 kcal/mol|
|  sn= 5 | S(rot)=       0.01069216 Eh      6.71 kcal/mol|
|  sn= 6 | S(rot)=       0.01052001 Eh      6.60 kcal/mol|
|  sn= 7 | S(rot)=       0.01037447 Eh      6.51 kcal/mol|
|  sn= 8 | S(rot)=       0.01024839 Eh      6.43 kcal/mol|
|  sn= 9 | S(rot)=       0.01013718 Eh      6.36 kcal/mol|
|  sn=10 | S(rot)=       0.01003770 Eh      6.30 kcal/mol|
|  sn=11 | S(rot)=       0.00994771 Eh      6.24 kcal/mol|
|  sn=12 | S(rot)=       0.00986556 Eh      6.19 kcal/mol|
 --------------------------------------------------------


-------------------
GIBBS FREE ENERGY
-------------------

The Gibbs free energy is G = H - T*S

Total enthalpy                    ...   -231.67073986 Eh 
Total entropy correction          ...     -0.03232284 Eh    -20.28 kcal/mol
-----------------------------------------------------------------------
Final Gibbs free energy         ...   -231.70306271 Eh

For completeness - the Gibbs free energy minus the electronic energy
G-E(el)                           ...      0.07112648 Eh     44.63 kcal/mol


Timings for individual modules:

Sum of individual times         ...       77.641 sec (=   1.294 min)
GTO integral calculation        ...        8.257 sec (=   0.138 min)  10.6 %
SCF iterations                  ...       17.899 sec (=   0.298 min)  23.1 %
SCF Gradient evaluation         ...        9.241 sec (=   0.154 min)  11.9 %
Geometry relaxation             ...        0.121 sec (=   0.002 min)   0.2 %
Analytical frequency calculation...       42.122 sec (=   0.702 min)  54.3 %
                             ****ORCA TERMINATED NORMALLY****
TOTAL RUN TIME: 0 days 0 hours 1 minutes 22 seconds 558 msec
